  TITLE = "SEM Quad mesh" 
  VARIABLES = "x","y", "z"
 ZONE I=           7 ,J=           7 , F=POINT
 -0.16374E+02  0.36047E+01  0.00000E+00
 -0.16274E+02  0.36044E+01  0.00000E+00
 -0.16001E+02  0.36034E+01  0.00000E+00
 -0.15627E+02  0.36020E+01  0.00000E+00
 -0.15254E+02  0.36006E+01  0.00000E+00
 -0.14981E+02  0.35996E+01  0.00000E+00
 -0.14881E+02  0.35993E+01  0.00000E+00
 -0.16430E+02  0.37112E+01  0.00000E+00
 -0.16327E+02  0.37122E+01  0.00000E+00
 -0.16044E+02  0.37149E+01  0.00000E+00
 -0.15658E+02  0.37185E+01  0.00000E+00
 -0.15272E+02  0.37222E+01  0.00000E+00
 -0.14989E+02  0.37248E+01  0.00000E+00
 -0.14885E+02  0.37258E+01  0.00000E+00
 -0.16584E+02  0.40022E+01  0.00000E+00
 -0.16471E+02  0.40069E+01  0.00000E+00
 -0.16162E+02  0.40195E+01  0.00000E+00
 -0.15740E+02  0.40368E+01  0.00000E+00
 -0.15319E+02  0.40541E+01  0.00000E+00
 -0.15010E+02  0.40668E+01  0.00000E+00
 -0.14897E+02  0.40715E+01  0.00000E+00
 -0.16794E+02  0.43998E+01  0.00000E+00
 -0.16668E+02  0.44094E+01  0.00000E+00
 -0.16323E+02  0.44357E+01  0.00000E+00
 -0.15853E+02  0.44717E+01  0.00000E+00
 -0.15383E+02  0.45077E+01  0.00000E+00
 -0.15039E+02  0.45340E+01  0.00000E+00
 -0.14913E+02  0.45436E+01  0.00000E+00
 -0.17004E+02  0.47973E+01  0.00000E+00
 -0.16865E+02  0.48119E+01  0.00000E+00
 -0.16485E+02  0.48519E+01  0.00000E+00
 -0.15966E+02  0.49065E+01  0.00000E+00
 -0.15447E+02  0.49612E+01  0.00000E+00
 -0.15067E+02  0.50012E+01  0.00000E+00
 -0.14928E+02  0.50158E+01  0.00000E+00
 -0.17158E+02  0.50883E+01  0.00000E+00
 -0.17009E+02  0.51066E+01  0.00000E+00
 -0.16603E+02  0.51566E+01  0.00000E+00
 -0.16049E+02  0.52249E+01  0.00000E+00
 -0.15494E+02  0.52932E+01  0.00000E+00
 -0.15088E+02  0.53432E+01  0.00000E+00
 -0.14940E+02  0.53615E+01  0.00000E+00
 -0.17214E+02  0.51948E+01  0.00000E+00
 -0.17062E+02  0.52144E+01  0.00000E+00
 -0.16646E+02  0.52681E+01  0.00000E+00
 -0.16079E+02  0.53414E+01  0.00000E+00
 -0.15511E+02  0.54147E+01  0.00000E+00
 -0.15096E+02  0.54683E+01  0.00000E+00
 -0.14944E+02  0.54880E+01  0.00000E+00
 ZONE I=           7 ,J=           7 , F=POINT
 -0.14881E+02  0.35993E+01  0.00000E+00
 -0.14747E+02  0.36014E+01  0.00000E+00
 -0.14381E+02  0.36070E+01  0.00000E+00
 -0.13880E+02  0.36148E+01  0.00000E+00
 -0.13380E+02  0.36225E+01  0.00000E+00
 -0.13013E+02  0.36282E+01  0.00000E+00
 -0.12879E+02  0.36302E+01  0.00000E+00
 -0.14885E+02  0.37258E+01  0.00000E+00
 -0.14751E+02  0.37280E+01  0.00000E+00
 -0.14385E+02  0.37340E+01  0.00000E+00
 -0.13885E+02  0.37423E+01  0.00000E+00
 -0.13385E+02  0.37505E+01  0.00000E+00
 -0.13018E+02  0.37566E+01  0.00000E+00
 -0.12884E+02  0.37588E+01  0.00000E+00
 -0.14897E+02  0.40715E+01  0.00000E+00
 -0.14763E+02  0.40740E+01  0.00000E+00
 -0.14397E+02  0.40811E+01  0.00000E+00
 -0.13897E+02  0.40907E+01  0.00000E+00
 -0.13398E+02  0.41003E+01  0.00000E+00
 -0.13032E+02  0.41073E+01  0.00000E+00
 -0.12898E+02  0.41099E+01  0.00000E+00
 -0.14913E+02  0.45436E+01  0.00000E+00
 -0.14779E+02  0.45467E+01  0.00000E+00
 -0.14414E+02  0.45551E+01  0.00000E+00
 -0.13914E+02  0.45666E+01  0.00000E+00
 -0.13415E+02  0.45780E+01  0.00000E+00
 -0.13050E+02  0.45864E+01  0.00000E+00
 -0.12916E+02  0.45895E+01  0.00000E+00
 -0.14928E+02  0.50158E+01  0.00000E+00
 -0.14795E+02  0.50194E+01  0.00000E+00
 -0.14430E+02  0.50291E+01  0.00000E+00
 -0.13932E+02  0.50425E+01  0.00000E+00
 -0.13433E+02  0.50558E+01  0.00000E+00
 -0.13068E+02  0.50656E+01  0.00000E+00
 -0.12935E+02  0.50691E+01  0.00000E+00
 -0.14940E+02  0.53615E+01  0.00000E+00
 -0.14806E+02  0.53654E+01  0.00000E+00
 -0.14442E+02  0.53762E+01  0.00000E+00
 -0.13944E+02  0.53909E+01  0.00000E+00
 -0.13446E+02  0.54056E+01  0.00000E+00
 -0.13082E+02  0.54163E+01  0.00000E+00
 -0.12949E+02  0.54203E+01  0.00000E+00
 -0.14944E+02  0.54880E+01  0.00000E+00
 -0.14810E+02  0.54920E+01  0.00000E+00
 -0.14446E+02  0.55032E+01  0.00000E+00
 -0.13949E+02  0.55184E+01  0.00000E+00
 -0.13451E+02  0.55336E+01  0.00000E+00
 -0.13087E+02  0.55447E+01  0.00000E+00
 -0.12953E+02  0.55488E+01  0.00000E+00
 ZONE I=           7 ,J=           7 , F=POINT
 -0.12879E+02  0.36302E+01  0.00000E+00
 -0.12751E+02  0.36387E+01  0.00000E+00
 -0.12400E+02  0.36619E+01  0.00000E+00
 -0.11920E+02  0.36936E+01  0.00000E+00
 -0.11440E+02  0.37252E+01  0.00000E+00
 -0.11089E+02  0.37484E+01  0.00000E+00
 -0.10960E+02  0.37569E+01  0.00000E+00
 -0.12884E+02  0.37588E+01  0.00000E+00
 -0.12756E+02  0.37665E+01  0.00000E+00
 -0.12404E+02  0.37878E+01  0.00000E+00
 -0.11923E+02  0.38169E+01  0.00000E+00
 -0.11443E+02  0.38459E+01  0.00000E+00
 -0.11091E+02  0.38672E+01  0.00000E+00
 -0.10962E+02  0.38750E+01  0.00000E+00
 -0.12898E+02  0.41099E+01  0.00000E+00
 -0.12769E+02  0.41157E+01  0.00000E+00
 -0.12415E+02  0.41318E+01  0.00000E+00
 -0.11933E+02  0.41537E+01  0.00000E+00
 -0.11451E+02  0.41756E+01  0.00000E+00
 -0.11097E+02  0.41917E+01  0.00000E+00
 -0.10968E+02  0.41976E+01  0.00000E+00
 -0.12916E+02  0.45895E+01  0.00000E+00
 -0.12786E+02  0.45928E+01  0.00000E+00
 -0.12431E+02  0.46017E+01  0.00000E+00
 -0.11946E+02  0.46139E+01  0.00000E+00
 -0.11461E+02  0.46261E+01  0.00000E+00
 -0.11106E+02  0.46350E+01  0.00000E+00
 -0.10976E+02  0.46383E+01  0.00000E+00
 -0.12935E+02  0.50691E+01  0.00000E+00
 -0.12804E+02  0.50698E+01  0.00000E+00
 -0.12447E+02  0.50716E+01  0.00000E+00
 -0.11959E+02  0.50741E+01  0.00000E+00
 -0.11471E+02  0.50765E+01  0.00000E+00
 -0.11114E+02  0.50783E+01  0.00000E+00
 -0.10984E+02  0.50790E+01  0.00000E+00
 -0.12949E+02  0.54203E+01  0.00000E+00
 -0.12817E+02  0.54190E+01  0.00000E+00
 -0.12459E+02  0.54156E+01  0.00000E+00
 -0.11969E+02  0.54109E+01  0.00000E+00
 -0.11479E+02  0.54063E+01  0.00000E+00
 -0.11121E+02  0.54028E+01  0.00000E+00
 -0.10989E+02  0.54016E+01  0.00000E+00
 -0.12953E+02  0.55488E+01  0.00000E+00
 -0.12822E+02  0.55468E+01  0.00000E+00
 -0.12463E+02  0.55415E+01  0.00000E+00
 -0.11972E+02  0.55342E+01  0.00000E+00
 -0.11482E+02  0.55269E+01  0.00000E+00
 -0.11123E+02  0.55216E+01  0.00000E+00
 -0.10991E+02  0.55197E+01  0.00000E+00
 ZONE I=           7 ,J=           7 , F=POINT
 -0.10960E+02  0.37569E+01  0.00000E+00
 -0.10872E+02  0.37626E+01  0.00000E+00
 -0.10631E+02  0.37784E+01  0.00000E+00
 -0.10301E+02  0.38000E+01  0.00000E+00
 -0.99716E+01  0.38215E+01  0.00000E+00
 -0.97303E+01  0.38373E+01  0.00000E+00
 -0.96420E+01  0.38430E+01  0.00000E+00
 -0.10962E+02  0.38750E+01  0.00000E+00
 -0.10871E+02  0.38787E+01  0.00000E+00
 -0.10619E+02  0.38890E+01  0.00000E+00
 -0.10276E+02  0.39030E+01  0.00000E+00
 -0.99334E+01  0.39170E+01  0.00000E+00
 -0.96824E+01  0.39273E+01  0.00000E+00
 -0.95904E+01  0.39311E+01  0.00000E+00
 -0.10968E+02  0.41976E+01  0.00000E+00
 -0.10866E+02  0.41958E+01  0.00000E+00
 -0.10588E+02  0.41911E+01  0.00000E+00
 -0.10209E+02  0.41846E+01  0.00000E+00
 -0.98293E+01  0.41781E+01  0.00000E+00
 -0.95514E+01  0.41733E+01  0.00000E+00
 -0.94497E+01  0.41716E+01  0.00000E+00
 -0.10976E+02  0.46383E+01  0.00000E+00
 -0.10861E+02  0.46290E+01  0.00000E+00
 -0.10546E+02  0.46037E+01  0.00000E+00
 -0.10117E+02  0.45692E+01  0.00000E+00
 -0.96870E+01  0.45346E+01  0.00000E+00
 -0.93725E+01  0.45093E+01  0.00000E+00
 -0.92574E+01  0.45001E+01  0.00000E+00
 -0.10984E+02  0.50790E+01  0.00000E+00
 -0.10855E+02  0.50622E+01  0.00000E+00
 -0.10504E+02  0.50164E+01  0.00000E+00
 -0.10024E+02  0.49538E+01  0.00000E+00
 -0.95447E+01  0.48912E+01  0.00000E+00
 -0.91936E+01  0.48454E+01  0.00000E+00
 -0.90651E+01  0.48286E+01  0.00000E+00
 -0.10989E+02  0.54016E+01  0.00000E+00
 -0.10851E+02  0.53793E+01  0.00000E+00
 -0.10473E+02  0.53185E+01  0.00000E+00
 -0.99568E+01  0.52353E+01  0.00000E+00
 -0.94406E+01  0.51522E+01  0.00000E+00
 -0.90626E+01  0.50913E+01  0.00000E+00
 -0.89243E+01  0.50691E+01  0.00000E+00
 -0.10991E+02  0.55197E+01  0.00000E+00
 -0.10849E+02  0.54954E+01  0.00000E+00
 -0.10462E+02  0.54290E+01  0.00000E+00
 -0.99321E+01  0.53384E+01  0.00000E+00
 -0.94024E+01  0.52477E+01  0.00000E+00
 -0.90147E+01  0.51814E+01  0.00000E+00
 -0.88728E+01  0.51571E+01  0.00000E+00
 ZONE I=           7 ,J=           7 , F=POINT
  0.10201E+02  0.36145E+01  0.00000E+00
  0.10291E+02  0.36148E+01  0.00000E+00
  0.10538E+02  0.36156E+01  0.00000E+00
  0.10876E+02  0.36167E+01  0.00000E+00
  0.11213E+02  0.36178E+01  0.00000E+00
  0.11460E+02  0.36186E+01  0.00000E+00
  0.11551E+02  0.36189E+01  0.00000E+00
  0.10141E+02  0.37046E+01  0.00000E+00
  0.10235E+02  0.37070E+01  0.00000E+00
  0.10491E+02  0.37137E+01  0.00000E+00
  0.10842E+02  0.37228E+01  0.00000E+00
  0.11192E+02  0.37319E+01  0.00000E+00
  0.11448E+02  0.37385E+01  0.00000E+00
  0.11542E+02  0.37409E+01  0.00000E+00
  0.99789E+01  0.39508E+01  0.00000E+00
  0.10082E+02  0.39590E+01  0.00000E+00
  0.10364E+02  0.39817E+01  0.00000E+00
  0.10749E+02  0.40126E+01  0.00000E+00
  0.11134E+02  0.40435E+01  0.00000E+00
  0.11416E+02  0.40661E+01  0.00000E+00
  0.11519E+02  0.40744E+01  0.00000E+00
  0.97573E+01  0.42870E+01  0.00000E+00
  0.98733E+01  0.43033E+01  0.00000E+00
  0.10190E+02  0.43477E+01  0.00000E+00
  0.10623E+02  0.44084E+01  0.00000E+00
  0.11056E+02  0.44691E+01  0.00000E+00
  0.11372E+02  0.45135E+01  0.00000E+00
  0.11488E+02  0.45298E+01  0.00000E+00
  0.95357E+01  0.46232E+01  0.00000E+00
  0.96644E+01  0.46475E+01  0.00000E+00
  0.10016E+02  0.47137E+01  0.00000E+00
  0.10496E+02  0.48043E+01  0.00000E+00
  0.10977E+02  0.48948E+01  0.00000E+00
  0.11328E+02  0.49610E+01  0.00000E+00
  0.11457E+02  0.49853E+01  0.00000E+00
  0.93735E+01  0.48694E+01  0.00000E+00
  0.95115E+01  0.48995E+01  0.00000E+00
  0.98887E+01  0.49817E+01  0.00000E+00
  0.10404E+02  0.50940E+01  0.00000E+00
  0.10919E+02  0.52064E+01  0.00000E+00
  0.11296E+02  0.52886E+01  0.00000E+00
  0.11434E+02  0.53187E+01  0.00000E+00
  0.93141E+01  0.49595E+01  0.00000E+00
  0.94555E+01  0.49917E+01  0.00000E+00
  0.98420E+01  0.50798E+01  0.00000E+00
  0.10370E+02  0.52001E+01  0.00000E+00
  0.10898E+02  0.53204E+01  0.00000E+00
  0.11284E+02  0.54085E+01  0.00000E+00
  0.11426E+02  0.54407E+01  0.00000E+00
 ZONE I=           7 ,J=           7 , F=POINT
  0.11551E+02  0.36189E+01  0.00000E+00
  0.11680E+02  0.36205E+01  0.00000E+00
  0.12035E+02  0.36248E+01  0.00000E+00
  0.12519E+02  0.36307E+01  0.00000E+00
  0.13003E+02  0.36366E+01  0.00000E+00
  0.13357E+02  0.36409E+01  0.00000E+00
  0.13487E+02  0.36424E+01  0.00000E+00
  0.11542E+02  0.37409E+01  0.00000E+00
  0.11672E+02  0.37431E+01  0.00000E+00
  0.12027E+02  0.37491E+01  0.00000E+00
  0.12511E+02  0.37572E+01  0.00000E+00
  0.12995E+02  0.37654E+01  0.00000E+00
  0.13350E+02  0.37713E+01  0.00000E+00
  0.13479E+02  0.37735E+01  0.00000E+00
  0.11519E+02  0.40744E+01  0.00000E+00
  0.11649E+02  0.40782E+01  0.00000E+00
  0.12004E+02  0.40886E+01  0.00000E+00
  0.12489E+02  0.41029E+01  0.00000E+00
  0.12974E+02  0.41172E+01  0.00000E+00
  0.13329E+02  0.41277E+01  0.00000E+00
  0.13459E+02  0.41315E+01  0.00000E+00
  0.11488E+02  0.45298E+01  0.00000E+00
  0.11618E+02  0.45359E+01  0.00000E+00
  0.11974E+02  0.45525E+01  0.00000E+00
  0.12460E+02  0.45752E+01  0.00000E+00
  0.12945E+02  0.45979E+01  0.00000E+00
  0.13301E+02  0.46145E+01  0.00000E+00
  0.13431E+02  0.46205E+01  0.00000E+00
  0.11457E+02  0.49853E+01  0.00000E+00
  0.11587E+02  0.49936E+01  0.00000E+00
  0.11944E+02  0.50163E+01  0.00000E+00
  0.12430E+02  0.50474E+01  0.00000E+00
  0.12917E+02  0.50785E+01  0.00000E+00
  0.13273E+02  0.51013E+01  0.00000E+00
  0.13403E+02  0.51096E+01  0.00000E+00
  0.11434E+02  0.53187E+01  0.00000E+00
  0.11565E+02  0.53287E+01  0.00000E+00
  0.11921E+02  0.53559E+01  0.00000E+00
  0.12409E+02  0.53931E+01  0.00000E+00
  0.12896E+02  0.54304E+01  0.00000E+00
  0.13252E+02  0.54576E+01  0.00000E+00
  0.13383E+02  0.54676E+01  0.00000E+00
  0.11426E+02  0.54407E+01  0.00000E+00
  0.11556E+02  0.54513E+01  0.00000E+00
  0.11913E+02  0.54802E+01  0.00000E+00
  0.12401E+02  0.55197E+01  0.00000E+00
  0.12888E+02  0.55592E+01  0.00000E+00
  0.13245E+02  0.55881E+01  0.00000E+00
  0.13375E+02  0.55986E+01  0.00000E+00
 ZONE I=           7 ,J=           7 , F=POINT
  0.13487E+02  0.36424E+01  0.00000E+00
  0.13621E+02  0.36526E+01  0.00000E+00
  0.13987E+02  0.36804E+01  0.00000E+00
  0.14487E+02  0.37183E+01  0.00000E+00
  0.14987E+02  0.37563E+01  0.00000E+00
  0.15354E+02  0.37840E+01  0.00000E+00
  0.15488E+02  0.37942E+01  0.00000E+00
  0.13479E+02  0.37735E+01  0.00000E+00
  0.13613E+02  0.37835E+01  0.00000E+00
  0.13979E+02  0.38107E+01  0.00000E+00
  0.14479E+02  0.38478E+01  0.00000E+00
  0.14979E+02  0.38850E+01  0.00000E+00
  0.15344E+02  0.39122E+01  0.00000E+00
  0.15478E+02  0.39222E+01  0.00000E+00
  0.13459E+02  0.41315E+01  0.00000E+00
  0.13593E+02  0.41409E+01  0.00000E+00
  0.13958E+02  0.41666E+01  0.00000E+00
  0.14456E+02  0.42017E+01  0.00000E+00
  0.14955E+02  0.42368E+01  0.00000E+00
  0.15320E+02  0.42625E+01  0.00000E+00
  0.15453E+02  0.42719E+01  0.00000E+00
  0.13431E+02  0.46205E+01  0.00000E+00
  0.13564E+02  0.46292E+01  0.00000E+00
  0.13928E+02  0.46528E+01  0.00000E+00
  0.14425E+02  0.46851E+01  0.00000E+00
  0.14922E+02  0.47174E+01  0.00000E+00
  0.15286E+02  0.47410E+01  0.00000E+00
  0.15419E+02  0.47497E+01  0.00000E+00
  0.13403E+02  0.51096E+01  0.00000E+00
  0.13536E+02  0.51175E+01  0.00000E+00
  0.13899E+02  0.51390E+01  0.00000E+00
  0.14394E+02  0.51685E+01  0.00000E+00
  0.14889E+02  0.51979E+01  0.00000E+00
  0.15252E+02  0.52195E+01  0.00000E+00
  0.15384E+02  0.52274E+01  0.00000E+00
  0.13383E+02  0.54676E+01  0.00000E+00
  0.13515E+02  0.54749E+01  0.00000E+00
  0.13877E+02  0.54950E+01  0.00000E+00
  0.14371E+02  0.55224E+01  0.00000E+00
  0.14865E+02  0.55497E+01  0.00000E+00
  0.15227E+02  0.55698E+01  0.00000E+00
  0.15359E+02  0.55771E+01  0.00000E+00
  0.13375E+02  0.55986E+01  0.00000E+00
  0.13508E+02  0.56058E+01  0.00000E+00
  0.13869E+02  0.56253E+01  0.00000E+00
  0.14363E+02  0.56519E+01  0.00000E+00
  0.14856E+02  0.56785E+01  0.00000E+00
  0.15218E+02  0.56980E+01  0.00000E+00
  0.15350E+02  0.57051E+01  0.00000E+00
 ZONE I=           7 ,J=           7 , F=POINT
  0.15488E+02  0.37942E+01  0.00000E+00
  0.15588E+02  0.38051E+01  0.00000E+00
  0.15862E+02  0.38348E+01  0.00000E+00
  0.16237E+02  0.38755E+01  0.00000E+00
  0.16611E+02  0.39161E+01  0.00000E+00
  0.16885E+02  0.39459E+01  0.00000E+00
  0.16986E+02  0.39568E+01  0.00000E+00
  0.15478E+02  0.39222E+01  0.00000E+00
  0.15582E+02  0.39322E+01  0.00000E+00
  0.15866E+02  0.39595E+01  0.00000E+00
  0.16253E+02  0.39968E+01  0.00000E+00
  0.16641E+02  0.40341E+01  0.00000E+00
  0.16925E+02  0.40614E+01  0.00000E+00
  0.17028E+02  0.40714E+01  0.00000E+00
  0.15453E+02  0.42719E+01  0.00000E+00
  0.15566E+02  0.42795E+01  0.00000E+00
  0.15876E+02  0.43001E+01  0.00000E+00
  0.16299E+02  0.43283E+01  0.00000E+00
  0.16722E+02  0.43565E+01  0.00000E+00
  0.17032E+02  0.43772E+01  0.00000E+00
  0.17145E+02  0.43847E+01  0.00000E+00
  0.15419E+02  0.47497E+01  0.00000E+00
  0.15545E+02  0.47539E+01  0.00000E+00
  0.15890E+02  0.47654E+01  0.00000E+00
  0.16362E+02  0.47812E+01  0.00000E+00
  0.16834E+02  0.47969E+01  0.00000E+00
  0.17179E+02  0.48085E+01  0.00000E+00
  0.17305E+02  0.48127E+01  0.00000E+00
  0.15384E+02  0.52274E+01  0.00000E+00
  0.15524E+02  0.52283E+01  0.00000E+00
  0.15904E+02  0.52307E+01  0.00000E+00
  0.16425E+02  0.52340E+01  0.00000E+00
  0.16945E+02  0.52373E+01  0.00000E+00
  0.17326E+02  0.52398E+01  0.00000E+00
  0.17465E+02  0.52407E+01  0.00000E+00
  0.15359E+02  0.55771E+01  0.00000E+00
  0.15508E+02  0.55756E+01  0.00000E+00
  0.15915E+02  0.55713E+01  0.00000E+00
  0.16470E+02  0.55655E+01  0.00000E+00
  0.17026E+02  0.55597E+01  0.00000E+00
  0.17433E+02  0.55555E+01  0.00000E+00
  0.17582E+02  0.55539E+01  0.00000E+00
  0.15350E+02  0.57051E+01  0.00000E+00
  0.15502E+02  0.57027E+01  0.00000E+00
  0.15919E+02  0.56960E+01  0.00000E+00
  0.16487E+02  0.56869E+01  0.00000E+00
  0.17056E+02  0.56777E+01  0.00000E+00
  0.17472E+02  0.56711E+01  0.00000E+00
  0.17625E+02  0.56686E+01  0.00000E+00
 ZONE I=           7 ,J=           7 , F=POINT
 -0.18826E+02  0.60217E+01  0.00000E+00
 -0.18718E+02  0.59663E+01  0.00000E+00
 -0.18423E+02  0.58150E+01  0.00000E+00
 -0.18020E+02  0.56083E+01  0.00000E+00
 -0.17617E+02  0.54015E+01  0.00000E+00
 -0.17322E+02  0.52502E+01  0.00000E+00
 -0.17214E+02  0.51948E+01  0.00000E+00
 -0.18823E+02  0.61221E+01  0.00000E+00
 -0.18714E+02  0.60702E+01  0.00000E+00
 -0.18417E+02  0.59287E+01  0.00000E+00
 -0.18010E+02  0.57353E+01  0.00000E+00
 -0.17603E+02  0.55419E+01  0.00000E+00
 -0.17306E+02  0.54003E+01  0.00000E+00
 -0.17197E+02  0.53485E+01  0.00000E+00
 -0.18815E+02  0.63962E+01  0.00000E+00
 -0.18703E+02  0.63541E+01  0.00000E+00
 -0.18398E+02  0.62392E+01  0.00000E+00
 -0.17982E+02  0.60822E+01  0.00000E+00
 -0.17566E+02  0.59253E+01  0.00000E+00
 -0.17261E+02  0.58103E+01  0.00000E+00
 -0.17149E+02  0.57683E+01  0.00000E+00
 -0.18803E+02  0.67706E+01  0.00000E+00
 -0.18688E+02  0.67419E+01  0.00000E+00
 -0.18373E+02  0.66634E+01  0.00000E+00
 -0.17944E+02  0.65562E+01  0.00000E+00
 -0.17514E+02  0.64490E+01  0.00000E+00
 -0.17199E+02  0.63705E+01  0.00000E+00
 -0.17084E+02  0.63418E+01  0.00000E+00
 -0.18792E+02  0.71451E+01  0.00000E+00
 -0.18673E+02  0.71297E+01  0.00000E+00
 -0.18349E+02  0.70876E+01  0.00000E+00
 -0.17905E+02  0.70302E+01  0.00000E+00
 -0.17462E+02  0.69727E+01  0.00000E+00
 -0.17138E+02  0.69306E+01  0.00000E+00
 -0.17019E+02  0.69152E+01  0.00000E+00
 -0.18783E+02  0.74192E+01  0.00000E+00
 -0.18662E+02  0.74136E+01  0.00000E+00
 -0.18330E+02  0.73982E+01  0.00000E+00
 -0.17878E+02  0.73771E+01  0.00000E+00
 -0.17425E+02  0.73561E+01  0.00000E+00
 -0.17093E+02  0.73407E+01  0.00000E+00
 -0.16972E+02  0.73350E+01  0.00000E+00
 -0.18780E+02  0.75196E+01  0.00000E+00
 -0.18658E+02  0.75175E+01  0.00000E+00
 -0.18324E+02  0.75118E+01  0.00000E+00
 -0.17867E+02  0.75041E+01  0.00000E+00
 -0.17411E+02  0.74964E+01  0.00000E+00
 -0.17077E+02  0.74908E+01  0.00000E+00
 -0.16954E+02  0.74887E+01  0.00000E+00
 ZONE I=           7 ,J=           7 , F=POINT
 -0.17214E+02  0.51948E+01  0.00000E+00
 -0.17062E+02  0.52144E+01  0.00000E+00
 -0.16646E+02  0.52681E+01  0.00000E+00
 -0.16079E+02  0.53414E+01  0.00000E+00
 -0.15511E+02  0.54147E+01  0.00000E+00
 -0.15096E+02  0.54683E+01  0.00000E+00
 -0.14944E+02  0.54880E+01  0.00000E+00
 -0.17197E+02  0.53485E+01  0.00000E+00
 -0.17046E+02  0.53668E+01  0.00000E+00
 -0.16634E+02  0.54167E+01  0.00000E+00
 -0.16072E+02  0.54850E+01  0.00000E+00
 -0.15510E+02  0.55532E+01  0.00000E+00
 -0.15099E+02  0.56032E+01  0.00000E+00
 -0.14948E+02  0.56215E+01  0.00000E+00
 -0.17149E+02  0.57683E+01  0.00000E+00
 -0.17002E+02  0.57829E+01  0.00000E+00
 -0.16602E+02  0.58228E+01  0.00000E+00
 -0.16055E+02  0.58773E+01  0.00000E+00
 -0.15508E+02  0.59318E+01  0.00000E+00
 -0.15107E+02  0.59717E+01  0.00000E+00
 -0.14960E+02  0.59863E+01  0.00000E+00
 -0.17084E+02  0.63418E+01  0.00000E+00
 -0.16943E+02  0.63513E+01  0.00000E+00
 -0.16557E+02  0.63775E+01  0.00000E+00
 -0.16031E+02  0.64132E+01  0.00000E+00
 -0.15504E+02  0.64489E+01  0.00000E+00
 -0.15118E+02  0.64750E+01  0.00000E+00
 -0.14977E+02  0.64846E+01  0.00000E+00
 -0.17019E+02  0.69152E+01  0.00000E+00
 -0.16884E+02  0.69198E+01  0.00000E+00
 -0.16513E+02  0.69322E+01  0.00000E+00
 -0.16006E+02  0.69491E+01  0.00000E+00
 -0.15500E+02  0.69660E+01  0.00000E+00
 -0.15129E+02  0.69784E+01  0.00000E+00
 -0.14993E+02  0.69829E+01  0.00000E+00
 -0.16972E+02  0.73350E+01  0.00000E+00
 -0.16840E+02  0.73359E+01  0.00000E+00
 -0.16480E+02  0.73382E+01  0.00000E+00
 -0.15989E+02  0.73414E+01  0.00000E+00
 -0.15497E+02  0.73445E+01  0.00000E+00
 -0.15137E+02  0.73469E+01  0.00000E+00
 -0.15005E+02  0.73477E+01  0.00000E+00
 -0.16954E+02  0.74887E+01  0.00000E+00
 -0.16824E+02  0.74882E+01  0.00000E+00
 -0.16468E+02  0.74868E+01  0.00000E+00
 -0.15982E+02  0.74850E+01  0.00000E+00
 -0.15496E+02  0.74831E+01  0.00000E+00
 -0.15140E+02  0.74817E+01  0.00000E+00
 -0.15010E+02  0.74812E+01  0.00000E+00
 ZONE I=           7 ,J=           7 , F=POINT
 -0.14944E+02  0.54880E+01  0.00000E+00
 -0.14810E+02  0.54920E+01  0.00000E+00
 -0.14446E+02  0.55032E+01  0.00000E+00
 -0.13949E+02  0.55184E+01  0.00000E+00
 -0.13451E+02  0.55336E+01  0.00000E+00
 -0.13087E+02  0.55447E+01  0.00000E+00
 -0.12953E+02  0.55488E+01  0.00000E+00
 -0.14948E+02  0.56215E+01  0.00000E+00
 -0.14815E+02  0.56254E+01  0.00000E+00
 -0.14451E+02  0.56359E+01  0.00000E+00
 -0.13953E+02  0.56504E+01  0.00000E+00
 -0.13455E+02  0.56648E+01  0.00000E+00
 -0.13091E+02  0.56753E+01  0.00000E+00
 -0.12958E+02  0.56792E+01  0.00000E+00
 -0.14960E+02  0.59863E+01  0.00000E+00
 -0.14827E+02  0.59896E+01  0.00000E+00
 -0.14463E+02  0.59986E+01  0.00000E+00
 -0.13965E+02  0.60109E+01  0.00000E+00
 -0.13467E+02  0.60233E+01  0.00000E+00
 -0.13103E+02  0.60323E+01  0.00000E+00
 -0.12969E+02  0.60356E+01  0.00000E+00
 -0.14977E+02  0.64846E+01  0.00000E+00
 -0.14843E+02  0.64871E+01  0.00000E+00
 -0.14479E+02  0.64941E+01  0.00000E+00
 -0.13981E+02  0.65035E+01  0.00000E+00
 -0.13483E+02  0.65130E+01  0.00000E+00
 -0.13119E+02  0.65199E+01  0.00000E+00
 -0.12985E+02  0.65224E+01  0.00000E+00
 -0.14993E+02  0.69829E+01  0.00000E+00
 -0.14860E+02  0.69847E+01  0.00000E+00
 -0.14495E+02  0.69895E+01  0.00000E+00
 -0.13997E+02  0.69961E+01  0.00000E+00
 -0.13499E+02  0.70027E+01  0.00000E+00
 -0.13135E+02  0.70075E+01  0.00000E+00
 -0.13001E+02  0.70093E+01  0.00000E+00
 -0.15005E+02  0.73477E+01  0.00000E+00
 -0.14872E+02  0.73489E+01  0.00000E+00
 -0.14507E+02  0.73522E+01  0.00000E+00
 -0.14009E+02  0.73567E+01  0.00000E+00
 -0.13511E+02  0.73612E+01  0.00000E+00
 -0.13146E+02  0.73645E+01  0.00000E+00
 -0.13013E+02  0.73657E+01  0.00000E+00
 -0.15010E+02  0.74812E+01  0.00000E+00
 -0.14876E+02  0.74822E+01  0.00000E+00
 -0.14512E+02  0.74849E+01  0.00000E+00
 -0.14013E+02  0.74887E+01  0.00000E+00
 -0.13515E+02  0.74924E+01  0.00000E+00
 -0.13151E+02  0.74951E+01  0.00000E+00
 -0.13017E+02  0.74961E+01  0.00000E+00
 ZONE I=           7 ,J=           7 , F=POINT
 -0.12953E+02  0.55488E+01  0.00000E+00
 -0.12822E+02  0.55468E+01  0.00000E+00
 -0.12463E+02  0.55415E+01  0.00000E+00
 -0.11972E+02  0.55342E+01  0.00000E+00
 -0.11482E+02  0.55269E+01  0.00000E+00
 -0.11123E+02  0.55216E+01  0.00000E+00
 -0.10991E+02  0.55197E+01  0.00000E+00
 -0.12958E+02  0.56792E+01  0.00000E+00
 -0.12826E+02  0.56773E+01  0.00000E+00
 -0.12466E+02  0.56720E+01  0.00000E+00
 -0.11975E+02  0.56647E+01  0.00000E+00
 -0.11483E+02  0.56575E+01  0.00000E+00
 -0.11123E+02  0.56522E+01  0.00000E+00
 -0.10992E+02  0.56503E+01  0.00000E+00
 -0.12969E+02  0.60356E+01  0.00000E+00
 -0.12837E+02  0.60337E+01  0.00000E+00
 -0.12475E+02  0.60285E+01  0.00000E+00
 -0.11981E+02  0.60213E+01  0.00000E+00
 -0.11487E+02  0.60142E+01  0.00000E+00
 -0.11125E+02  0.60089E+01  0.00000E+00
 -0.10993E+02  0.60070E+01  0.00000E+00
 -0.12985E+02  0.65224E+01  0.00000E+00
 -0.12852E+02  0.65206E+01  0.00000E+00
 -0.12488E+02  0.65154E+01  0.00000E+00
 -0.11990E+02  0.65084E+01  0.00000E+00
 -0.11492E+02  0.65014E+01  0.00000E+00
 -0.11128E+02  0.64962E+01  0.00000E+00
 -0.10994E+02  0.64943E+01  0.00000E+00
 -0.13001E+02  0.70093E+01  0.00000E+00
 -0.12867E+02  0.70074E+01  0.00000E+00
 -0.12500E+02  0.70024E+01  0.00000E+00
 -0.11998E+02  0.69955E+01  0.00000E+00
 -0.11497E+02  0.69886E+01  0.00000E+00
 -0.11130E+02  0.69835E+01  0.00000E+00
 -0.10996E+02  0.69817E+01  0.00000E+00
 -0.13013E+02  0.73657E+01  0.00000E+00
 -0.12878E+02  0.73638E+01  0.00000E+00
 -0.12509E+02  0.73588E+01  0.00000E+00
 -0.12005E+02  0.73520E+01  0.00000E+00
 -0.11501E+02  0.73452E+01  0.00000E+00
 -0.11132E+02  0.73402E+01  0.00000E+00
 -0.10997E+02  0.73384E+01  0.00000E+00
 -0.13017E+02  0.74961E+01  0.00000E+00
 -0.12882E+02  0.74943E+01  0.00000E+00
 -0.12512E+02  0.74893E+01  0.00000E+00
 -0.12007E+02  0.74825E+01  0.00000E+00
 -0.11502E+02  0.74758E+01  0.00000E+00
 -0.11133E+02  0.74708E+01  0.00000E+00
 -0.10997E+02  0.74690E+01  0.00000E+00
 ZONE I=           7 ,J=           7 , F=POINT
 -0.10991E+02  0.55197E+01  0.00000E+00
 -0.10849E+02  0.54954E+01  0.00000E+00
 -0.10462E+02  0.54290E+01  0.00000E+00
 -0.99321E+01  0.53384E+01  0.00000E+00
 -0.94024E+01  0.52477E+01  0.00000E+00
 -0.90147E+01  0.51814E+01  0.00000E+00
 -0.88728E+01  0.51571E+01  0.00000E+00
 -0.10992E+02  0.56503E+01  0.00000E+00
 -0.10850E+02  0.56272E+01  0.00000E+00
 -0.10463E+02  0.55641E+01  0.00000E+00
 -0.99337E+01  0.54780E+01  0.00000E+00
 -0.94047E+01  0.53919E+01  0.00000E+00
 -0.90174E+01  0.53289E+01  0.00000E+00
 -0.88757E+01  0.53058E+01  0.00000E+00
 -0.10993E+02  0.60070E+01  0.00000E+00
 -0.10852E+02  0.59872E+01  0.00000E+00
 -0.10466E+02  0.59333E+01  0.00000E+00
 -0.99382E+01  0.58596E+01  0.00000E+00
 -0.94109E+01  0.57858E+01  0.00000E+00
 -0.90249E+01  0.57319E+01  0.00000E+00
 -0.88836E+01  0.57121E+01  0.00000E+00
 -0.10994E+02  0.64943E+01  0.00000E+00
 -0.10854E+02  0.64791E+01  0.00000E+00
 -0.10469E+02  0.64375E+01  0.00000E+00
 -0.99444E+01  0.63807E+01  0.00000E+00
 -0.94194E+01  0.63239E+01  0.00000E+00
 -0.90351E+01  0.62823E+01  0.00000E+00
 -0.88944E+01  0.62671E+01  0.00000E+00
 -0.10996E+02  0.69817E+01  0.00000E+00
 -0.10856E+02  0.69710E+01  0.00000E+00
 -0.10473E+02  0.69418E+01  0.00000E+00
 -0.99505E+01  0.69019E+01  0.00000E+00
 -0.94279E+01  0.68620E+01  0.00000E+00
 -0.90453E+01  0.68328E+01  0.00000E+00
 -0.89053E+01  0.68221E+01  0.00000E+00
 -0.10997E+02  0.73384E+01  0.00000E+00
 -0.10857E+02  0.73310E+01  0.00000E+00
 -0.10476E+02  0.73109E+01  0.00000E+00
 -0.99550E+01  0.72834E+01  0.00000E+00
 -0.94341E+01  0.72559E+01  0.00000E+00
 -0.90528E+01  0.72358E+01  0.00000E+00
 -0.89132E+01  0.72284E+01  0.00000E+00
 -0.10997E+02  0.74690E+01  0.00000E+00
 -0.10858E+02  0.74628E+01  0.00000E+00
 -0.10477E+02  0.74460E+01  0.00000E+00
 -0.99566E+01  0.74231E+01  0.00000E+00
 -0.94364E+01  0.74001E+01  0.00000E+00
 -0.90555E+01  0.73833E+01  0.00000E+00
 -0.89161E+01  0.73771E+01  0.00000E+00
 ZONE I=           7 ,J=           7 , F=POINT
 -0.88728E+01  0.51571E+01  0.00000E+00
 -0.87675E+01  0.51825E+01  0.00000E+00
 -0.84799E+01  0.52521E+01  0.00000E+00
 -0.80869E+01  0.53470E+01  0.00000E+00
 -0.76940E+01  0.54420E+01  0.00000E+00
 -0.74063E+01  0.55115E+01  0.00000E+00
 -0.73010E+01  0.55369E+01  0.00000E+00
 -0.88757E+01  0.53058E+01  0.00000E+00
 -0.87669E+01  0.53282E+01  0.00000E+00
 -0.84698E+01  0.53893E+01  0.00000E+00
 -0.80640E+01  0.54728E+01  0.00000E+00
 -0.76581E+01  0.55563E+01  0.00000E+00
 -0.73610E+01  0.56174E+01  0.00000E+00
 -0.72523E+01  0.56398E+01  0.00000E+00
 -0.88836E+01  0.57121E+01  0.00000E+00
 -0.87654E+01  0.57261E+01  0.00000E+00
 -0.84425E+01  0.57643E+01  0.00000E+00
 -0.80013E+01  0.58165E+01  0.00000E+00
 -0.75602E+01  0.58687E+01  0.00000E+00
 -0.72372E+01  0.59069E+01  0.00000E+00
 -0.71190E+01  0.59208E+01  0.00000E+00
 -0.88944E+01  0.62671E+01  0.00000E+00
 -0.87633E+01  0.62696E+01  0.00000E+00
 -0.84051E+01  0.62765E+01  0.00000E+00
 -0.79157E+01  0.62859E+01  0.00000E+00
 -0.74264E+01  0.62953E+01  0.00000E+00
 -0.70681E+01  0.63022E+01  0.00000E+00
 -0.69370E+01  0.63047E+01  0.00000E+00
 -0.89053E+01  0.68221E+01  0.00000E+00
 -0.87612E+01  0.68132E+01  0.00000E+00
 -0.83677E+01  0.67887E+01  0.00000E+00
 -0.78301E+01  0.67554E+01  0.00000E+00
 -0.72925E+01  0.67220E+01  0.00000E+00
 -0.68990E+01  0.66976E+01  0.00000E+00
 -0.67550E+01  0.66886E+01  0.00000E+00
 -0.89132E+01  0.72284E+01  0.00000E+00
 -0.87597E+01  0.72111E+01  0.00000E+00
 -0.83403E+01  0.71637E+01  0.00000E+00
 -0.77674E+01  0.70990E+01  0.00000E+00
 -0.71946E+01  0.70343E+01  0.00000E+00
 -0.67752E+01  0.69870E+01  0.00000E+00
 -0.66217E+01  0.69696E+01  0.00000E+00
 -0.89161E+01  0.73771E+01  0.00000E+00
 -0.87591E+01  0.73567E+01  0.00000E+00
 -0.83303E+01  0.73010E+01  0.00000E+00
 -0.77445E+01  0.72248E+01  0.00000E+00
 -0.71587E+01  0.71487E+01  0.00000E+00
 -0.67299E+01  0.70929E+01  0.00000E+00
 -0.65729E+01  0.70725E+01  0.00000E+00
 ZONE I=           7 ,J=           7 , F=POINT
  0.76964E+01  0.53080E+01  0.00000E+00
  0.78048E+01  0.52847E+01  0.00000E+00
  0.81008E+01  0.52209E+01  0.00000E+00
  0.85052E+01  0.51337E+01  0.00000E+00
  0.89097E+01  0.50466E+01  0.00000E+00
  0.92057E+01  0.49828E+01  0.00000E+00
  0.93141E+01  0.49595E+01  0.00000E+00
  0.76439E+01  0.54142E+01  0.00000E+00
  0.77554E+01  0.53941E+01  0.00000E+00
  0.80601E+01  0.53392E+01  0.00000E+00
  0.84762E+01  0.52642E+01  0.00000E+00
  0.88924E+01  0.51892E+01  0.00000E+00
  0.91970E+01  0.51343E+01  0.00000E+00
  0.93085E+01  0.51142E+01  0.00000E+00
  0.75006E+01  0.57044E+01  0.00000E+00
  0.76207E+01  0.56931E+01  0.00000E+00
  0.79487E+01  0.56625E+01  0.00000E+00
  0.83969E+01  0.56206E+01  0.00000E+00
  0.88451E+01  0.55787E+01  0.00000E+00
  0.91732E+01  0.55481E+01  0.00000E+00
  0.92933E+01  0.55369E+01  0.00000E+00
  0.73047E+01  0.61007E+01  0.00000E+00
  0.74365E+01  0.61016E+01  0.00000E+00
  0.77967E+01  0.61041E+01  0.00000E+00
  0.82886E+01  0.61075E+01  0.00000E+00
  0.87805E+01  0.61109E+01  0.00000E+00
  0.91407E+01  0.61133E+01  0.00000E+00
  0.92725E+01  0.61142E+01  0.00000E+00
  0.71089E+01  0.64971E+01  0.00000E+00
  0.72524E+01  0.65101E+01  0.00000E+00
  0.76446E+01  0.65457E+01  0.00000E+00
  0.81803E+01  0.65943E+01  0.00000E+00
  0.87160E+01  0.66430E+01  0.00000E+00
  0.91081E+01  0.66786E+01  0.00000E+00
  0.92517E+01  0.66916E+01  0.00000E+00
  0.69655E+01  0.67872E+01  0.00000E+00
  0.71176E+01  0.68091E+01  0.00000E+00
  0.75332E+01  0.68690E+01  0.00000E+00
  0.81010E+01  0.69508E+01  0.00000E+00
  0.86687E+01  0.70325E+01  0.00000E+00
  0.90843E+01  0.70924E+01  0.00000E+00
  0.92364E+01  0.71143E+01  0.00000E+00
  0.69130E+01  0.68934E+01  0.00000E+00
  0.70683E+01  0.69186E+01  0.00000E+00
  0.74925E+01  0.69873E+01  0.00000E+00