 VARIABLES = "X", "Y", "Z", "Material ID"
 ZONE F=FEPOINT, ET=QUADRILATERAL, N=         783 E=         722
  -20.000000000000000       -20.000000000000000        0.0000000000000000                1
  -18.000000000000000       -20.000000000000000        0.0000000000000000                1
  -16.000000000000000       -20.000000000000000        0.0000000000000000                1
  -14.000000000000000       -20.000000000000000        0.0000000000000000                1
  -12.000000000000000       -20.000000000000000        0.0000000000000000                1
  -10.000000000000000       -20.000000000000000        0.0000000000000000                1
  -8.0000000000000000       -20.000000000000000        0.0000000000000000                1
  -6.0000000000000000       -20.000000000000000        0.0000000000000000                1
  -4.0000000000000000       -20.000000000000000        0.0000000000000000                1
  -2.0000000000000000       -20.000000000000000        0.0000000000000000                1
   0.0000000000000000       -20.000000000000000        0.0000000000000000                1
   2.0000000000000000       -20.000000000000000        0.0000000000000000                1
   4.0000000000000000       -20.000000000000000        0.0000000000000000                1
   6.0000000000000000       -20.000000000000000        0.0000000000000000                1
   8.0000000000000000       -20.000000000000000        0.0000000000000000                1
   10.000000000000000       -20.000000000000000        0.0000000000000000                1
   12.000000000000000       -20.000000000000000        0.0000000000000000                1
   14.000000000000000       -20.000000000000000        0.0000000000000000                1
   16.000000000000000       -20.000000000000000        0.0000000000000000                1
   18.000000000000000       -20.000000000000000        0.0000000000000000                1
   20.000000000000000       -20.000000000000000        0.0000000000000000                1
  -20.000000000000000       -18.000000000000000        0.0000000000000000                1
  -17.999999912630059       -17.999999912630308        0.0000000000000000                1
  -15.999999611599238       -17.999999639639952        0.0000000000000000                1
  -13.999998681615709       -17.999998874057937        0.0000000000000000                1
  -11.999996477341334       -17.999997229982281        0.0000000000000000                1
  -9.9999925455970526       -17.999994549486022        0.0000000000000000                1
  -7.9999875066001165       -17.999991264257929        0.0000000000000000                1
  -5.9999836317354758       -17.999988317333351        0.0000000000000000                1
  -3.9999840233411508       -17.999986501787554        0.0000000000000000                1
  -1.9999904100249328       -17.999985845107197        0.0000000000000000                1
  -1.2835257079265916E-006  -17.999985761989986        0.0000000000000000                1
   1.9999877030253475       -17.999985831855444        0.0000000000000000                1
   3.9999810621228620       -17.999986317671937        0.0000000000000000                1
   5.9999806396264086       -17.999987833238418        0.0000000000000000                1
   7.9999849043661637       -17.999990539038919        0.0000000000000000                1
   9.9999906558147096       -17.999993795352864        0.0000000000000000                1
   11.999995346636879       -17.999996645229118        0.0000000000000000                1
   13.999998129138604       -17.999998525719938        0.0000000000000000                1
   15.999999393513740       -17.999999478885709        0.0000000000000000                1
   17.999999846731651       -17.999999857984665        0.0000000000000000                1
   20.000000000000000       -18.000000000000000        0.0000000000000000                1
  -20.000000000000000       -16.000000000000000        0.0000000000000000                1
  -17.999999639631234       -15.999999611593823        0.0000000000000000                1
  -15.999998251855498       -15.999998251867289        0.0000000000000000                1
  -13.999993521437561       -15.999994061617222        0.0000000000000000                1
  -11.999981272790576       -15.999984355145228        0.0000000000000000                1
  -9.9999576827243839       -15.999967697154501        0.0000000000000000                1
  -7.9999253422441940       -15.999946910097112        0.0000000000000000                1
  -5.9998984530744037       -15.999928900305349        0.0000000000000000                1
  -3.9998983925934444       -15.999919426037206        0.0000000000000000                1
  -1.9999382765481353       -15.999917922120813        0.0000000000000000                1
  -8.9004431942371041E-006  -15.999918823714424        0.0000000000000000                1
   1.9999191909318417       -15.999918237368179        0.0000000000000000                1
   3.9998769109011771       -15.999918469602459        0.0000000000000000                1
   5.9998764116233039       -15.999925341844333        0.0000000000000000                1
   7.9999062439569641       -15.999941226272737        0.0000000000000000                1
   9.9999441111137095       -15.999961785259886        0.0000000000000000                1
   11.999973458389617       -15.999979909609257        0.0000000000000000                1
   13.999989905009702       -15.999991549162630        0.0000000000000000                1
   15.999996919270735       -15.999997170886825        0.0000000000000000                1
   17.999999266009834       -15.999999271143105        0.0000000000000000                1
   20.000000000000000       -16.000000000000000        0.0000000000000000                1
  -20.000000000000000       -14.000000000000000        0.0000000000000000                1
  -17.999998873960578       -13.999998681533219        0.0000000000000000                1
  -15.999994061257455       -13.999993521211646        0.0000000000000000                1
  -13.999975876608163       -13.999975877021278        0.0000000000000000                1
  -11.999923738981305       -13.999930985013092        0.0000000000000000                1
  -9.9998135160791666       -13.999848262337565        0.0000000000000000                1
  -7.9996494462841810       -13.999741441570567        0.0000000000000000                1
  -5.9995004526436375       -13.999651630045562        0.0000000000000000                1
  -3.9994844804903233       -13.999614080589501        0.0000000000000000                1
  -1.9996815464927753       -13.999622100831582        0.0000000000000000                1
  -4.7851740251391854E-005  -13.999635811127378        0.0000000000000000                1
   1.9995766681707514       -13.999627339881348        0.0000000000000000                1
   3.9993621752553206       -13.999611844798363        0.0000000000000000                1
   5.9993727401233112       -13.999631122466100        0.0000000000000000                1
   7.9995394016776959       -13.999705879477087        0.0000000000000000                1
   9.9997373738727795       -13.999811385885252        0.0000000000000000                1
   11.999881865391645       -13.999904325995121        0.0000000000000000                1
   13.999957692789673       -13.999961743308535        0.0000000000000000                1
   15.999987867138008       -13.999987919924582        0.0000000000000000                1
   17.999997276368823       -13.999997065371113        0.0000000000000000                1
   20.000000000000000       -14.000000000000000        0.0000000000000000                1
  -20.000000000000000       -12.000000000000000        0.0000000000000000                1
  -17.999997229244599       -11.999996476612020        0.0000000000000000                1
  -15.999984351732373       -11.999981269914260        0.0000000000000000                1
  -13.999930974361259       -11.999923732463893        0.0000000000000000                1
  -11.999760119272024       -11.999760130186219        0.0000000000000000                1
  -9.9993547396270284       -11.999426534853043        0.0000000000000000                1
  -7.9986831146551651       -11.998967108914727        0.0000000000000000                1
  -5.9980043825857186       -11.998584863109944        0.0000000000000000                1
  -3.9978558278758749       -11.998468578894359        0.0000000000000000                1
  -1.9986435633308768       -11.998574573081035        0.0000000000000000                1
  -2.0096046581605852E-004  -11.998678090088553        0.0000000000000000                1
   1.9981897396621309       -11.998621829623396        0.0000000000000000                1
   3.9973020337817764       -11.998480478216802        0.0000000000000000                1
   5.9974141836001404       -11.998490790592580        0.0000000000000000                1
   7.9981788849323694       -11.998786010845782        0.0000000000000000                1
   9.9990176097724586       -11.999240772303491        0.0000000000000000                1
   11.999584989934904       -11.999632840385519        0.0000000000000000                1
   13.999860468161760       -11.999861424253716        0.0000000000000000                1
   15.999962349784722       -11.999958821460897        0.0000000000000000                1
   17.999992023641287       -11.999990584416821        0.0000000000000000                1
   20.000000000000000       -12.000000000000000        0.0000000000000000                1
  -20.000000000000000       -10.000000000000000        0.0000000000000000                1
  -17.999994545344467       -9.9999925408970540        0.0000000000000000                1
  -15.999967675143932       -9.9999576611276311        0.0000000000000000                1
  -13.999848175951280       -9.9998134450256906        0.0000000000000000                1
  -11.999426302517495       -9.9993546036949645        0.0000000000000000                1
  -9.9982728362131823       -9.9982730505926405        0.0000000000000000                1
  -7.9960404770100553       -9.9965853085392062        0.0000000000000000                1
  -5.9934244583333864       -9.9951334662668874        0.0000000000000000                1
  -3.9925170587233314       -9.9948534255435693        0.0000000000000000                1
  -1.9951074365240480       -9.9955088417928177        0.0000000000000000                1
  -6.5486053574039806E-004  -9.9960574997697229        0.0000000000000000                1
   1.9935608743670350       -9.9958158318528749        0.0000000000000000                1
   3.9905072698541924       -9.9950234677201877        0.0000000000000000                1
   5.9912268651378380       -9.9947838105816800        0.0000000000000000                1
   7.9941893305013556       -9.9958188526526737        0.0000000000000000                1
   9.9970943055749206       -9.9975099253419479        0.0000000000000000                1
   11.998859478474150       -9.9988720913039835        0.0000000000000000                1
   13.999640352278949       -9.9996007088853709        0.0000000000000000                1
   15.999908634601914       -9.9998888764158380        0.0000000000000000                1
   17.999981636374720       -9.9999761039905906        0.0000000000000000                1
   20.000000000000000       -10.000000000000000        0.0000000000000000                1
  -20.000000000000000       -8.0000000000000000        0.0000000000000000                1
  -17.999991246721695       -7.9999874834555902        0.0000000000000000                1
  -15.999946805150683       -7.9999252233301146        0.0000000000000000                1
  -13.999740966996331       -7.9996489909027666        0.0000000000000000                1
  -11.998965505950382       -7.9986818467692808        0.0000000000000000                1
  -9.9965816224877706       -7.9960384626989924        0.0000000000000000                1
  -7.9906901675023594       -7.9906932299760873        0.0000000000000000                1
  -5.9818034082749199       -7.9853466376070257        0.0000000000000000                1
  -3.9772856899265290       -7.9850158555240682        0.0000000000000000                1
  -1.9845990099417161       -7.9880776904226805        0.0000000000000000                1
  -1.6206612080900192E-003  -7.9901222246466448        0.0000000000000000                1
   1.9804708970174614       -7.9896508028637285        0.0000000000000000                1
   3.9713642158151767       -7.9861570993881292        0.0000000000000000                1
   5.9750798648247265       -7.9842403203652230        0.0000000000000000                1
   7.9851753171892206       -7.9878922039572178        0.0000000000000000                1
   9.9933475387925768       -7.9934583070083001        0.0000000000000000                1
   11.997581081306414       -7.9972558055262164        0.0000000000000000                1
   13.999288133950435       -7.9991011618113914        0.0000000000000000                1
   15.999828442524283       -7.9997664665867543        0.0000000000000000                1
   17.999966844766551       -7.9999526224663144        0.0000000000000000                1
   20.000000000000000       -8.0000000000000000        0.0000000000000000                1
  -20.000000000000000       -6.0000000000000000        0.0000000000000000                1
  -17.999988261089996       -5.9999835429175832        0.0000000000000000                1
  -15.999928525337250       -5.9998979508668393        0.0000000000000000                1
  -13.999649716614558       -5.9994983097461931        0.0000000000000000                1
  -11.998577402445061       -5.9979974743784732        0.0000000000000000                1
  -9.9951118929888292       -5.9934084065037441        0.0000000000000000                1
  -7.9853047613601893       -5.9817826218549177        0.0000000000000000                1
  -5.9577506523794357       -5.9577812621033992        0.0000000000000000                1
  -3.9355225979478368       -5.9609456892799155        0.0000000000000000                1
  -1.9574367461660174       -5.9764761755149616        0.0000000000000000                1
  -2.8586167182866693E-003  -5.9749266541565822        0.0000000000000000                1
   1.9490875507704521       -5.9830498005648787        0.0000000000000000                1
   3.9211247613770639       -5.9668881929646211        0.0000000000000000                1
   5.9401509190298416       -5.9543368945061124        0.0000000000000000                1
   7.9717323490680583       -5.9723278169841123        0.0000000000000000                1
   9.9884199482083709       -5.9863620977482270        0.0000000000000000                1
   11.996203991854799       -5.9949137811716140        0.0000000000000000                1
   13.998942965250228       -5.9984728503755429        0.0000000000000000                1
   15.999752342710622       -5.9996280850991432        0.0000000000000000                1
   17.999952838106683       -5.9999282490591197        0.0000000000000000                1
   20.000000000000000       -6.0000000000000000        0.0000000000000000                1
  -20.000000000000000       -4.0000000000000000        0.0000000000000000                1
  -17.999986365426906       -3.9999837539111858        0.0000000000000000                1
  -15.999918424692476       -3.9998967380795425        0.0000000000000000                1
  -13.999608379668533       -3.9994767440060954        0.0000000000000000                1
  -11.998443390490102       -3.9978281713874142        0.0000000000000000                1
  -9.9947686332858101       -3.9924429028518649        0.0000000000000000                1
  -7.9848066301455836       -3.9771444784564007        0.0000000000000000                1
  -5.9606120819591606       -3.9353752853465416        0.0000000000000000                1
  -3.7651051636741113       -3.7653027933976393        0.0000000000000000                1
  -1.9314906114985240       -4.1960042895042662        0.0000000000000000                1
  -3.0436702087663502E-003  -3.6800508849498046        0.0000000000000000                1
   1.9205971071105792       -4.2142330339192835        0.0000000000000000                1
   3.7372068222000299       -3.7997769122444360        0.0000000000000000                1
   5.9161309886611573       -3.9175297991820464        0.0000000000000000                1
   7.9577039655527253       -3.9464880581338693        0.0000000000000000                1
   9.9866333846353790       -3.9796502989950517        0.0000000000000000                1
   11.995835701781051       -3.9933776719503151        0.0000000000000000                1
   13.998834596703640       -3.9981623578529204        0.0000000000000000                1
   15.999721552601590       -3.9995752810949199        0.0000000000000000                1
   17.999945859460887       -3.9999211471801019        0.0000000000000000                1
   20.000000000000000       -4.0000000000000000        0.0000000000000000                1
  -20.000000000000000       -2.0000000000000000        0.0000000000000000                1
  -17.999985598875828       -1.9999897560002835        0.0000000000000000                1
  -15.999915951913087       -1.9999339764233144        0.0000000000000000                1
  -13.999609728289789       -1.9996598176568552        0.0000000000000000                1
  -11.998513271646253       -1.9985587568413528        0.0000000000000000                1
  -9.9952715274118376       -1.9948551203087070        0.0000000000000000                1
  -7.9873805487879048       -1.9840443669554568        0.0000000000000000                1
  -5.9750002440669787       -1.9565973254134401        0.0000000000000000                1
  -4.1942397909271731       -1.9307522255822236        0.0000000000000000                1
  -1.8696836590369439       -1.8700700335604077        0.0000000000000000                1
   1.1941229744384713E-003  -1.9304605325801119        0.0000000000000000                1
   1.8551641254377447       -1.9069719287890916        0.0000000000000000                1
   4.1504550460214862       -2.1446856956956553        0.0000000000000000                1
   5.8199627017226847       -1.7639210080334677        0.0000000000000000                1
   7.9789828453271934       -1.9428468817322058        0.0000000000000000                1
   9.9915370722937329       -1.9830062326029210        0.0000000000000000                1
   11.996790748314638       -1.9950092827818116        0.0000000000000000                1
   13.998986161363796       -1.9986875848565422        0.0000000000000000                1
   15.999737833242341       -1.9997067153736632        0.0000000000000000                1
   17.999946243244587       -1.9999468359009096        0.0000000000000000                1
   20.000000000000000       -2.0000000000000000        0.0000000000000000                1
  -20.000000000000000        0.0000000000000000        0.0000000000000000                1
  -17.999985447198210        3.1957193616160311E-017   0.0000000000000000                1
  -15.999916089137976        8.8494745661155029E-017   0.0000000000000000                1
  -13.999617007926322        7.4033638563969480E-017   0.0000000000000000                1
  -11.998574652149506        3.3918078678781995E-016   0.0000000000000000                1
  -9.9956009809130943        6.3401303785730231E-015   0.0000000000000000                1
  -7.9885177162222973        9.1844618228796084E-014   0.0000000000000000                1
  -5.9706857258164217        7.3773921133614152E-013   0.0000000000000000                1
  -3.6719779655267288        1.0018318287133593E-011   0.0000000000000000                1
  -1.9260154654057358        5.1034049471660229E-011   0.0000000000000000                1
   1.9396845718321314        2.5334289111578191E-007   0.0000000000000000                1
   4.0358933803661508        1.3691057322627776E-009   0.0000000000000000                1
   6.2619654675166139        2.4080973312508634E-011   0.0000000000000000                1
   8.0069320634920924        6.7393231217169712E-012   0.0000000000000000                1
   9.9956754775015479        4.9906648174075782E-013   0.0000000000000000                1
   11.997513459882150        2.7029093450184748E-014   0.0000000000000000                1
   13.999104839746082        1.1641959936372666E-015   0.0000000000000000                1
   15.999753765765286        8.3741196785979327E-017   0.0000000000000000                1
   17.999947734126000        3.3172920595561341E-017   0.0000000000000000                1
   20.000000000000000        0.0000000000000000        0.0000000000000000                1
  -20.000000000000000        2.0000000000000000        0.0000000000000000                1
  -17.999985598875828        1.9999897560002835        0.0000000000000000                1
  -15.999915951913087        1.9999339764233144        0.0000000000000000                1
  -13.999609728289789        1.9996598176568552        0.0000000000000000                1
  -11.998513271646255        1.9985587568413534        0.0000000000000000                1
  -9.9952715274119441        1.9948551203087235        0.0000000000000000                1
  -7.9873805487900231        1.9840443669557568        0.0000000000000000                1
  -5.9750002440970391        1.9565973254175977        0.0000000000000000                1
  -4.1942397910603146        1.9307522255996241        0.0000000000000000                1
  -1.8696836724573396        1.8700700352250093        0.0000000000000000                1
   1.1927102578146247E-003   1.9304607070585289        0.0000000000000000                1
   1.8551629595256538        1.9069720768815730        0.0000000000000000                1
   4.1504550268757088        2.1446856984365352        0.0000000000000000                1
   5.8199626999772258        1.7639210083032184        0.0000000000000000                1
   7.9789828452260050        1.9428468817483433        0.0000000000000000                1
   9.9915370722885708        1.9830062326039370        0.0000000000000000                1
   11.996790748314417        1.9950092827818642        0.0000000000000000                1
   13.998986161363788        1.9986875848565444        0.0000000000000000                1
   15.999737833242341        1.9997067153736634        0.0000000000000000                1
   17.999946243244587        1.9999468359009096        0.0000000000000000                1
   20.000000000000000        2.0000000000000000        0.0000000000000000                1
  -20.000000000000000        4.0000000000000000        0.0000000000000000                1
  -17.999986365426906        3.9999837539111858        0.0000000000000000                1
  -15.999918424692476        3.9998967380795425        0.0000000000000000                1
  -13.999608379668533        3.9994767440060954        0.0000000000000000                1
  -11.998443390490111        3.9978281713874146        0.0000000000000000                1
  -9.9947686332859877        3.9924429028518862        0.0000000000000000                1
  -7.9848066301492624        3.9771444784568697        0.0000000000000000                1
  -5.9606120820245216        3.9353752853547777        0.0000000000000000                1
  -3.7651051648329803        3.7653027935429244        0.0000000000000000                1
  -1.9314906240473195        4.1960042910742494        0.0000000000000000                1
  -3.0438176946413508E-003   3.6800509033549988        0.0000000000000000                1
   1.9205970790977869        4.2142330374601498        0.0000000000000000                1
   3.7372068070698661        3.7997769142041329        0.0000000000000000                1
   5.9161309873218402        3.9175297993631508        0.0000000000000000                1
   7.9577039654492472        3.9464880581484669        0.0000000000000000                1
   9.9866333846293323        3.9796502989959275        0.0000000000000000                1
   11.995835701780770        3.9933776719503586        0.0000000000000000                1
   13.998834596703629        3.9981623578529217        0.0000000000000000                1
   15.999721552601590        3.9995752810949199        0.0000000000000000                1
   17.999945859460887        3.9999211471801015        0.0000000000000000                1
   20.000000000000000        4.0000000000000000        0.0000000000000000                1
  -20.000000000000000        6.0000000000000000        0.0000000000000000                1
  -17.999988261089996        5.9999835429175832        0.0000000000000000                1
  -15.999928525337250        5.9998979508668393        0.0000000000000000                1
  -13.999649716614558        5.9994983097461931        0.0000000000000000                1
  -11.998577402445070        5.9979974743784732        0.0000000000000000                1
  -9.9951118929889962        5.9934084065037645        0.0000000000000000                1
  -7.9853047613636194        5.9817826218553511        0.0000000000000000                1
  -5.9577506524361867        5.9577812621105366        0.0000000000000000                1
  -3.9355225986104947        5.9609456893631139        0.0000000000000000                1
  -1.9574367519183751        5.9764761762355940        0.0000000000000000                1
  -2.8586274047273869E-003   5.9749266554959952        0.0000000000000000                1
   1.9490875438552491        5.9830498014346789        0.0000000000000000                1
   3.9211247595480128        5.9668881931983249        0.0000000000000000                1
   5.9401509185254042        5.9543368945715560        0.0000000000000000                1
   7.9717323490172411        5.9723278169908731        0.0000000000000000                1
   9.9884199482046974        5.9863620977487271        0.0000000000000000                1
   11.996203991854603        5.9949137811716424        0.0000000000000000                1
   13.998942965250222        5.9984728503755447        0.0000000000000000                1
   15.999752342710622        5.9996280850991432        0.0000000000000000                1
   17.999952838106683        5.9999282490591188        0.0000000000000000                1
   20.000000000000000        6.0000000000000000        0.0000000000000000                1
  -20.000000000000000        8.0000000000000000        0.0000000000000000                1
  -17.999991246721695        7.9999874834555902        0.0000000000000000                1
  -15.999946805150683        7.9999252233301146        0.0000000000000000                1
  -13.999740966996331        7.9996489909027666        0.0000000000000000                1
  -11.998965505950387        7.9986818467692808        0.0000000000000000                1
  -9.9965816224878754        7.9960384626990049        0.0000000000000000                1
  -7.9906901675042050        7.9906932299763200        0.0000000000000000                1
  -5.9818034082980862        7.9853466376099425        0.0000000000000000                1
  -3.9772856901211391        7.9850158555485278        0.0000000000000000                1
  -1.9845990105471403        7.9880776904987609        0.0000000000000000                1
  -1.6206620970125496E-003   7.9901222247584132        0.0000000000000000                1
   1.9804708963385378        7.9896508029492566        0.0000000000000000                1
   3.9713642155373687        7.9861570994233118        0.0000000000000000                1
   5.9750798647567853        7.9842403203739352        0.0000000000000000                1
   7.9851753171756039        7.9878922039589844        0.0000000000000000                1
   9.9933475387912445        7.9934583070084768        0.0000000000000000                1
   11.997581081306324        7.9972558055262279        0.0000000000000000                1
   13.999288133950431        7.9991011618113923        0.0000000000000000                1
   15.999828442524283        7.9997664665867543        0.0000000000000000                1
   17.999966844766551        7.9999526224663144        0.0000000000000000                1
   20.000000000000000        8.0000000000000000        0.0000000000000000                1
  -20.000000000000000        10.000000000000000        0.0000000000000000                1
  -17.999994545344467        9.9999925408970540        0.0000000000000000                1
  -15.999967675143932        9.9999576611276311        0.0000000000000000                1
  -13.999848175951280        9.9998134450256906        0.0000000000000000                1
  -11.999426302517499        9.9993546036949645        0.0000000000000000                1
  -9.9982728362132232        9.9982730505926458        0.0000000000000000                1
  -7.9960404770106379        9.9965853085392808        0.0000000000000000                1
  -5.9934244583386178        9.9951334662675464        0.0000000000000000                1
  -3.9925170587450935        9.9948534255463102        0.0000000000000000                1
  -1.9951074365727828        9.9955088417989568        0.0000000000000000                1
  -6.5486060030587830E-004   9.9960574997778604        0.0000000000000000                1
   1.9935608743144029        9.9958158318595167        0.0000000000000000                1
   3.9905072698276118        9.9950234677235503        0.0000000000000000                1
   5.9912268651294855        9.9947838105827405        0.0000000000000000                1